 Gaussian 09, Revision D.01,
 Gaussian 09:  ES64L-G09RevD.01 24-Apr-2013

 --------------------
 # opt B3LYP/6-31G(d)
 --------------------

 -----
 title
 -----
 Symbolic Z-matrix:
 Charge =  0 Multiplicity = 1

 SCF Done:  E(RB3LYP) =  -158.457093870     A.U. after   12 cycles
 SCF Done:  E(RB3LYP) =  -158.458703785     A.U. after    9 cycles
 SCF Done:  E(RB3LYP) =  -158.458811638     A.U. after    8 cycles
 SCF Done:  E(RB3LYP) =  -158.458814238     A.U. after    7 cycles
 Optimization completed.
    -- Stationary point found.

                         Standard orientation:
 ---------------------------------------------------------------------
 Center     Atomic      Atomic             Coordinates (Angstroms)
 Number     Number       Type             X           Y           Z
 ---------------------------------------------------------------------
      1          1           0        1.473070    0.000313    0.000000
      2          6           0        0.372556    0.000204    0.000000
      3          6           0       -0.095833    1.462316    0.000000
      4          1           0       -1.192321    1.521834    0.000000
      5          1           0        0.265798    1.997758    0.886163
      6          1           0        0.265798    1.997758   -0.886163
      7          6           0       -0.095833   -0.731199   -1.265915
      8          1           0       -1.192322   -0.763819   -1.315174
      9          1           0        0.262707   -0.229888   -2.173013
     10          1           0        0.268269   -1.765492   -1.287625
     11          6           0       -0.095833   -0.731199    1.265915
     12          1           0       -1.192322   -0.763819    1.315174
     13          1           0        0.268269   -1.765492    1.287625
     14          1           0        0.262707   -0.229888    2.173013
 ---------------------------------------------------------------------

 The electronic state is 1-A'.
 Alpha  occ. eigenvalues --  -10.18493 -10.16855 -10.16854 -10.16853  -0.79482
 Alpha  occ. eigenvalues --   -0.67636  -0.67632  -0.55476  -0.45677  -0.42488
 Alpha  occ. eigenvalues --   -0.42487  -0.37872  -0.37859  -0.35891  -0.32242
 Alpha  occ. eigenvalues --   -0.32239  -0.31762
 Alpha virt. eigenvalues --    0.08600   0.13724   0.15434   0.15434   0.15853
 Alpha virt. eigenvalues --    0.15856   0.17608   0.19674   0.19676   0.22651
 Alpha virt. eigenvalues --    0.22759   0.25996   0.26011   0.51327   0.51330

 Mulliken charges:
               1
     1  H    0.122870
     2  C   -0.060892
     3  C   -0.435460
     4  H    0.137339
     5  H    0.138709
     6  H    0.138709
     7  C   -0.435344
     8  H    0.137328
     9  H    0.138685
    10  H    0.138694
    11  C   -0.435344
    12  H    0.137328
    13  H    0.138694
    14  H    0.138685
 Sum of Mulliken charges =   0.00000

 Dipole moment (field-independent basis, Debye):
    X=              0.0856    Y=             -0.0001    Z=              0.0000  Tot=              0.0856
 Quadrupole moment (field-independent basis, Debye-Ang):
   XX=            -27.9669   YY=            -28.4608   ZZ=            -28.4636
   XY=              0.0004   XZ=              0.0000   YZ=              0.0000

 Normal termination of Gaussian 09 at Mon Apr  4 03:02:28 2016.
